% Model:              poly_cp_WithResults.mph
% Version:            COMSOL 5.5.0.359
% Date:               Dec 21 2021, 10:33
% Dimension:          3
% Nodes:              7402
% Expressions:        1
% Description:        Volume
% x                       y                        z                        Color
3.000000000000006E-7      6.000000000000001E-9     0                        1.2200373469994773E-12
2.400000000000006E-7      6.000000000000001E-9     0                        1.0161806502329323E-12
2.4E-7                    0                        0                        1.0262356747709253E-12
3.0000000000000126E-7     1.2000000000000002E-8    0                        1.2078769670359117E-12
2.400000000000012E-7      1.2000000000000002E-8    0                        1.0065992854759389E-12
1.800000000000006E-7      6.000000000000001E-9     0                        7.922746707785415E-13
1.8E-7                    0                        0                        7.997506801099622E-13
3.000000000000019E-7      1.8000000000000002E-8    0                        1.1961902468533463E-12
2.400000000000019E-7      1.8000000000000002E-8    0                        9.974915804999454E-13
1.8000000000000124E-7     1.2000000000000002E-8    0                        7.852723212281201E-13
1.200000000000006E-7      6.000000000000001E-9     0                        5.483194086363054E-13
1.2E-7                    0                        0                        5.53216402761154E-13
3.0000000000000253E-7     2.4000000000000003E-8    0                        1.1849771864517797E-12
2.400000000000025E-7      2.4000000000000003E-8    0                        9.88857535304952E-13
1.800000000000019E-7      1.8000000000000002E-8    0                        7.787436314586992E-13
1.2000000000000126E-7     1.2000000000000002E-8    0                        5.438960742924564E-13
6.000000000000063E-8      6.000000000000001E-9     0                        2.843148638062233E-13
5.999999999999998E-8      0                        0                        2.8663284272449934E-13
2.7883231948834426E-7     0                        3.724164001832747E-8     8.801967599014582E-13
2.1883231948834428E-7     0                        3.724164001832747E-8     6.791294800051706E-13
1.5883231948834424E-7     0                        3.724164001832747E-8     4.580129174210373E-13
9.883231948834426E-8      0                        3.724164001832747E-8     2.168470721490586E-13
3.8832319488344285E-8     0                        3.724164001832747E-8     -4.436805581076591E-14
2.576646389766886E-7      0                        7.448328003665494E-8     5.346225982062923E-13
1.9766463897668852E-7     0                        7.448328003665494E-8     3.389237503868345E-13
1.3766463897668856E-7     0                        7.448328003665494E-8     1.231756198795307E-13
7.766463897668857E-8      0                        7.448328003665494E-8     -1.1262179331561808E-13
2.3649695846503285E-7     0                        1.1172492005498241E-7    1.9594890165854568E-13
1.7649695846503284E-7     0                        1.1172492005498241E-7    5.618485915917456E-15
1.1649695846503285E-7     0                        1.1172492005498241E-7    -2.047612125145565E-13
2.1532927795337712E-7     0                        1.4896656007330989E-7    -1.3582432974178304E-13
1.5532927795337714E-7     0                        1.4896656007330989E-7    -3.207863134075813E-13
3.0E-7                    0                        0                        1.232671386744043E-12
3.0000000000000316E-7     3.0000000000000004E-8    0                        1.1742377858312138E-12
0                         0                        0                        0
1.9416159744172142E-7     0                        1.8620820009163735E-7    -4.606970959946922E-13
6.000000000000063E-8      1.2000000000000002E-8    0                        2.822703681463475E-13
0                         6.0E-9                   0                        2.34581864792299E-17
6.000000000000063E-8      1.8000000000000002E-8    0                        2.802141433932319E-13
0                         1.2E-8                   0                        3.5187279718844853E-17
6.000000000000063E-8      2.4E-8                   0                        2.7814618954687675E-13
0                         1.8E-8                   0                        3.5187279718844853E-17
6.000000000000063E-8      3.0000000000000004E-8    0                        2.760665066072821E-13
0                         2.4E-8                   0                        2.345818647922989E-17
1.2000000000000126E-7     1.8000000000000002E-8    0                        5.397836247862254E-13
1.2000000000000126E-7     2.4000000000000003E-8    0                        5.356594461867547E-13
1.2000000000000126E-7     3.0000000000000004E-8    0                        5.315235384940444E-13
1.800000000000019E-7      2.4000000000000003E-8    0                        7.72563228106113E-13
1.800000000000019E-7      3.0000000000000004E-8    0                        7.663710956602871E-13
2.400000000000025E-7      3.0000000000000004E-8    0                        9.806091781060108E-13
0                         3.0E-8                   0                        0
1.8232343824438913E-7     3.0E-8                   1.583464873431792E-7     -3.4657665423771404E-13
1.9674257868329246E-7     3.0E-8                   1.1875986550738441E-7    -2.313993494056286E-14
2.4232343824438975E-7     3.0000000000000004E-8    1.583464873431792E-7     -1.7988067753541228E-13
2.1116171912219581E-7     3.0000000000000004E-8    7.91732436715896E-8      3.0586994354910846E-13
2.567425786832931E-7      3.0000000000000004E-8    1.1875986550738441E-7    1.502891995174645E-13
2.255808595610992E-7      3.0000000000000004E-8    3.95866218357948E-8      6.404529812312994E-13
2.7116171912219646E-7     3.0000000000000004E-8    7.91732436715896E-8      4.86032235762861E-13
2.855808595610998E-7      3.0000000000000004E-8    3.95866218357948E-8      8.273484312007777E-13
1.3674257868329184E-7     3.0E-8                   1.1875986550738441E-7    -2.1717854411910956E-13
1.511617191221952E-7      3.0000000000000004E-8    7.91732436715896E-8      1.0509817661483615E-13
1.6558085956109855E-7     3.0000000000000004E-8    3.95866218357948E-8      4.3294805654130185E-13
9.116171912219457E-8      3.0E-8                   7.91732436715896E-8      -1.1628306503995577E-13
1.0558085956109791E-7     3.0000000000000004E-8    3.95866218357948E-8      2.0483365713078432E-13
4.5580859561097283E-8     3.0E-8                   3.95866218357948E-8      -4.389021700025256E-14
2.279042978054864E-7      3.0E-8                   1.97933109178974E-7      -5.04477395395769E-13
0                         6.0E-9                   2.4000000000000014E-7    -1.411053969211584E-12
0                         6.0E-9                   3.0000000000000015E-7    -1.7995042905866523E-12
0                         0                        2.4E-7                   -1.401793740443809E-12
0                         1.2E-8                   2.400000000000003E-7     -1.42036574346968E-12
0                         1.2E-8                   3.000000000000003E-7     -1.8106946805919115E-12
0                         1.8E-8                   2.4000000000000046E-7    -1.4297290632180964E-12
0                         1.8E-8                   3.000000000000005E-7     -1.8219366160874915E-12
0                         2.4E-8                   2.4000000000000067E-7    -1.4391439284568343E-12
0                         2.4E-8                   3.000000000000006E-7     -1.8332300970733917E-12
0                         6.0E-9                   1.8000000000000013E-7    -1.0370529560432963E-12
0                         0                        1.8E-7                   -1.0296713430226844E-12
0                         1.2E-8                   1.8000000000000031E-7    -1.044486114554229E-12
0                         1.8E-8                   1.800000000000005E-7     -1.051970818555483E-12
0                         6.0E-9                   1.2000000000000015E-7    -6.775012510817908E-13
0                         0                        1.2E-7                   -6.719982538083419E-13
0                         1.2E-8                   1.2000000000000033E-7    -6.830557938455604E-13
0                         6.0E-9                   6.000000000000017E-8     -3.32398854327066E-13
0                         0                        5.999999999999998E-8     -3.2877447280077967E-13
3.8832319488344285E-8     0                        2.7724164001832744E-7    -1.5481286311360127E-12
3.8832319488344285E-8     0                        2.1724164001832746E-7    -1.1505145249945287E-12
7.766463897668857E-8      0                        2.5448328003665495E-7    -1.2952433886604593E-12
7.766463897668857E-8      0                        1.944832800366549E-7     -8.865868820053973E-13
1.1649695846503285E-7     0                        2.317249200549824E-7     -1.029709718645055E-12
1.1649695846503285E-7     0                        1.717249200549824E-7     -6.10010811476415E-13
1.5532927795337714E-7     0                        2.0896656007330987E-7    -7.515276210897987E-13
3.8832319488344285E-8     0                        1.5724164001832743E-7    -7.673497270598262E-13
7.766463897668857E-8      0                        1.3448328003665494E-7    -4.923796835571167E-13
3.8832319488344285E-8     0                        9.724164001832745E-8     -3.986342373319057E-13
0                         0                        3.0E-7                   -1.7883654460717148E-12
0                         3.0E-8                   3.0000000000000083E-7    -1.8445751235496133E-12
0                         1.2E-8                   6.000000000000017E-8     -3.3493825184524525E-13
0                         1.8E-8                   6.000000000000017E-8     -3.3748937845666394E-13
0                         1.8E-8                   1.2000000000000033E-7    -6.881580470683982E-13
0                         2.4E-8                   6.000000000000017E-8     -3.4005223416132237E-13
0                         2.4E-8                   1.2000000000000033E-7    -6.932720293844752E-13
0                         2.4E-8                   1.800000000000005E-7     -1.0596359274829789E-12
0                         3.0E-8                   6.000000000000017E-8     -3.426268189592204E-13
0                         3.0E-8                   1.2000000000000033E-7    -6.983977407937919E-13
0                         3.0E-8                   1.800000000000005E-7     -1.0673127655037145E-12
0                         3.0E-8                   2.4000000000000067E-7    -1.449371893088989E-12
1.8232343824438913E-7     3.0E-8                   2.1834648734317938E-7    -8.012403329493178E-13
1.3674257868329184E-7     3.0E-8                   1.7875986550738457E-7    -6.438330078926176E-13
9.116171912219457E-8      3.0E-8                   1.3917324367158977E-7    -5.149283138753678E-13
4.5580859561097283E-8     3.0E-8                   9.958662183579497E-8     -4.145262508975689E-13
1.3674257868329184E-7     3.0E-8                   2.3875986550738474E-7    -1.0836315745414766E-12
9.116171912219457E-8      3.0E-8                   1.9917324367158994E-7    -9.26717665586131E-13
4.5580859561097283E-8     3.0E-8                   1.5958662183579514E-7    -7.983063876702365E-13
9.116171912219457E-8      3.0E-8                   2.591732436715901E-7     -1.3516511201722454E-12
4.5580859561097283E-8     3.0E-8                   2.195866218357953E-7     -1.195230627318255E-12
4.5580859561097283E-8     3.0E-8                   2.7958662183579547E-7    -1.6052989698416246E-12
3.6000000000000063E-7     6.000000000000001E-9     0                        1.3897636731869968E-12
3.6E-7                    0                        0                        1.4053689354602715E-12
3.600000000000012E-7      1.2000000000000002E-8    0                        1.3746320706947218E-12
3.600000000000019E-7      1.8000000000000002E-8    0                        1.3599741279834467E-12
3.6000000000000254E-7     2.4000000000000003E-8    0                        1.3457898450531711E-12
4.2000000000000064E-7     6.000000000000001E-9     0                        1.565180489335626E-12
4.2E-7                    0                        0                        1.5837569741376099E-12
4.2000000000000127E-7     1.2000000000000002E-8    0                        1.547077664314641E-12
4.200000000000019E-7      1.8000000000000002E-8    0                        1.529448499074657E-12
4.800000000000007E-7      6.000000000000001E-9     0                        1.7462877954453648E-12
4.800000000000001E-7      0                        0                        1.7678355027760584E-12
4.800000000000013E-7      1.2000000000000002E-8    0                        1.7252137478956707E-12
5.400000000000007E-7      6.000000000000001E-9     0                        1.9330855915162136E-12
5.4E-7                    0                        0                        1.957604521375616E-12
3.296675240400166E-7      0                        4.338768331137345E-8     9.886676484321714E-13
3.8966752404001663E-7     0                        4.338768331137345E-8     1.161618005448669E-12
3.5933504808003325E-7     0                        8.67753666227469E-8      7.444539771411149E-13
4.193350480800332E-7      0                        8.67753666227469E-8      9.176571424578814E-13
3.890025721200498E-7      0                        1.3016304993412034E-7    5.000303728708736E-13
4.4900257212004984E-7     0                        1.3016304993412034E-7    6.734863464879088E-13
4.186700961600664E-7      0                        1.735507332454938E-7     2.553968356214464E-13
4.786700961600665E-7      0                        1.735507332454938E-7     4.291056175387504E-13
4.4966752404001664E-7     0                        4.338768331137345E-8     1.3402588524262766E-12
4.793350480800333E-7      0                        8.67753666227469E-8      1.0965507977357573E-12
5.090025721200499E-7      0                        1.3016304993412034E-7    8.526328100660539E-13
5.096675240400167E-7      0                        4.338768331137345E-8     1.5245901893649936E-12
5.393350480800333E-7      0                        8.67753666227469E-8      1.2811349429747432E-12
5.696675240400167E-7      0                        4.338768331137345E-8     1.7146120162648203E-12
4.4833762020008305E-7     0                        2.1693841655686726E-7    1.0553365392834917E-14
6.000000000000001E-7      0                        0                        2.1530640299362847E-12
3.084998435283609E-7      0                        8.062932332970092E-8     6.446599998531537E-13
2.8733216301670516E-7     0                        1.178709633480284E-7     3.0755281642155473E-13
2.6616448250504943E-7     0                        1.5511260336635587E-7    -2.2653901862625232E-14
2.4499680199339375E-7     0                        1.9235424338468333E-7    -3.4596015499938683E-13
3.3816736756837747E-7     0                        1.2401700664107438E-7    4.089133068256641E-13
3.169996870567218E-7      0                        1.6125864665940185E-7    8.027310165763176E-14
2.9583200654506607E-7     0                        1.9850028667772931E-7    -2.4146663836298127E-13
3.6783489160839405E-7     0                        1.674046899524478E-7     1.7295668081898953E-13
3.466672110967384E-7      0                        2.046463299707753E-7     -1.4721654608547585E-13
3.9750241564841074E-7     0                        2.1079237326382128E-7    -6.320987816687045E-14
0                         2.3999999999999997E-8    6.600000000000022E-7     -4.7041451692074076E-12
0                         2.4E-8                   6.000000000000016E-7     -4.238657026035393E-12
0                         3.0E-8                   6.600000000000026E-7     -4.725540099802703E-12
0                         1.7999999999999996E-8    6.600000000000017E-7     -4.682791582130048E-12
0                         1.8E-8                   6.000000000000011E-7     -4.218608485522308E-12
0                         1.1999999999999997E-8    6.600000000000014E-7     -4.6614793385706274E-12
0                         1.2E-8                   6.000000000000008E-7     -4.19860128852716E-12
0                         5.999999999999998E-9     6.600000000000011E-7     -4.640208438529144E-12
0                         5.999999999999998E-9     6.000000000000004E-7     -4.178635435049949E-12
0                         2.3999999999999993E-8    7.200000000000027E-7     -5.168623835663464E-12
0                         3.0E-8                   7.200000000000031E-7     -5.191323812823032E-12
0                         1.7999999999999996E-8    7.200000000000024E-7     -5.1459652020218316E-12
0                         1.1999999999999997E-8    7.20000000000002E-7      -5.123347911898139E-12
0                         2.399999999999999E-8     7.800000000000033E-7     -5.6320930254035646E-12
0                         2.999999999999999E-8     7.800000000000038E-7     -5.656098049127406E-12
0                         1.7999999999999992E-8    7.80000000000003E-7      -5.608129345197661E-12
0                         2.3999999999999993E-8    8.40000000000004E-7      -6.094552738427711E-12
0                         2.999999999999999E-8     8.400000000000043E-7     -6.119862808715825E-12
0                         3.0E-8                   6.000000000000019E-7     -4.258746910066416E-12
0                         0                        6.000000000000001E-7     -4.158710925090676E-12
0                         2.999999999999999E-8     9.000000000000049E-7     -6.5826180915882854E-12
0                         5.999999999999998E-9     8.40000000000001E-7      -6.022449977846171E-12
0                         5.999999999999998E-9     9.00000000000001E-7      -6.484464793010534E-12
0                         0                        8.4E-7                   -5.9984585212191786E-12
0                         1.1999999999999997E-8    8.400000000000019E-7     -6.046462832923257E-12
0                         1.1999999999999997E-8    9.00000000000002E-7      -6.508971019979833E-12
0                         1.7999999999999992E-8    8.40000000000003E-7      -6.0704970864504374E-12
0                         1.7999999999999992E-8    9.00000000000003E-7      -6.533498645399223E-12
0                         2.3999999999999993E-8    9.00000000000004E-7      -6.558047669268707E-12
0                         5.999999999999998E-9     7.800000000000009E-7     -5.5610689803778175E-12
0                         0                        7.799999999999999E-7     -5.537570895643036E-12
0                         1.1999999999999997E-8    7.80000000000002E-7      -5.584588463562691E-12
0                         5.999999999999998E-9     7.200000000000009E-7     -5.100321800605476E-12
0                         0                        7.200000000000001E-7     -5.077317087762906E-12
0                         0                        6.6E-7                   -4.617697097578785E-12
0                         0                        9.0E-7                   -6.459979964491331E-12
6.000000000000008E-7      6.0E-9                   0                        2.12623839017739E-12
5.400000000000015E-7      1.2000000000000002E-8    0                        1.9091445874053487E-12
6.000000000000017E-7      1.2E-8                   0                        2.099483356437002E-12
5.400000000000021E-7      1.8000000000000002E-8    0                        1.8852741893129906E-12
4.800000000000021E-7      1.8000000000000002E-8    0                        1.7041573794328354E-12
6.000000000000024E-7      1.8E-8                   0                        2.0727989287151218E-12
5.40000000000003E-7       2.4E-8                   0                        1.8614743972391384E-12
4.800000000000029E-7      2.4000000000000003E-8    0                        1.6831716169885059E-12
4.2000000000000265E-7     2.4000000000000003E-8    0                        1.5112767662598507E-12
6.000000000000033E-7      2.4E-8                   0                        2.0461851070117465E-12
5.400000000000038E-7      3.0000000000000004E-8    0                        1.8377452111837933E-12
4.800000000000037E-7      3.0000000000000004E-8    0                        1.6622564605626834E-12
4.200000000000035E-7      3.0000000000000004E-8    0                        1.4931756394635505E-12
3.6000000000000333E-7     3.0000000000000004E-8    0                        1.3305027478863944E-12
6.00000000000004E-7       3.0E-8                   0                        2.0196418913268788E-12
0                         6.0E-9                   5.400000000000004E-7     -3.69017484815754E-12
0                         0                        5.4E-7                   -3.6725966027298156E-12
0                         1.2E-8                   5.400000000000007E-7     -3.707794437103202E-12
0                         1.8E-8                   5.400000000000011E-7     -3.7254553695668E-12
0                         2.4E-8                   5.400000000000015E-7     -3.743157645548337E-12
0                         6.0E-9                   4.800000000000004E-7     -3.207736874543664E-12
0                         0                        4.800000000000001E-7     -3.1925048936474888E-12
0                         1.2E-8                   4.800000000000008E-7     -3.223010198957775E-12
0                         1.8E-8                   4.800000000000011E-7     -3.238324866889825E-12
0                         6.0E-9                   4.200000000000003E-7     -2.7313215142083224E-12
0                         0                        4.2E-7                   -2.718435797843697E-12
0                         1.2E-8                   4.2000000000000074E-7    -2.7442485740908846E-12
0                         6.0E-9                   3.6000000000000036E-7    -2.260928767151515E-12
0                         0                        3.5999999999999994E-7    -2.250389315318438E-12
5.3714149990995936E-8     0                        5.699299652593587E-7     -3.704187039939646E-12
5.3714149990995936E-8     0                        5.099299652593587E-7     -3.240618644422804E-12
1.0742829998199187E-7     0                        5.398599305187175E-7     -3.278641282835893E-12
1.0742829998199187E-7     0                        4.798599305187173E-7     -2.8376188141630687E-12
1.611424499729878E-7      0                        5.09789895778076E-7      -2.882073653779418E-12
1.611424499729878E-7      0                        4.4978989577807604E-7    -2.4635971119506116E-12
2.1485659996398374E-7     0                        4.797198610374348E-7     -2.5144841527702173E-12
2.1485659996398374E-7     0                        4.197198610374348E-7     -2.1185535377854307E-12
5.3714149990995936E-8     0                        4.499299652593587E-7     -2.783072862184496E-12
1.0742829998199187E-7     0                        4.198599305187174E-7     -2.402618958768778E-12
1.611424499729878E-7      0                        3.8978989577807604E-7    -2.0511431834003393E-12
5.3714149990995936E-8     0                        3.8992996525935866E-7    -2.3315496932247215E-12
1.0742829998199187E-7     0                        3.598599305187174E-7     -1.973641716653023E-12
5.3714149990995936E-8     0                        3.299299652593587E-7     -1.886049137543482E-12
2.6857074995497967E-7     0                        4.4964982629679347E-7    -2.1758727798082964E-12
0                         2.4E-8                   3.600000000000009E-7     -2.2989478862385383E-12
0                         3.0E-8                   3.6000000000000105E-7    -2.311724016914855E-12
0                         1.7999999999999996E-8    3.600000000000007E-7     -2.286223301052543E-12
0                         1.1999999999999998E-8    3.600000000000005E-7     -2.273550261356868E-12
0                         2.3999999999999997E-8    4.2000000000000106E-7    -2.7725084073727454E-12
0                         3.0E-8                   4.2000000000000127E-7    -2.7867156422491553E-12
0                         1.8E-8                   4.200000000000009E-7     -2.758352717986654E-12
0                         2.3999999999999997E-8    4.800000000000012E-7     -3.25391166047601E-12
0                         3.0E-8                   4.800000000000014E-7     -3.269549999552516E-12
0                         3.0E-8                   5.400000000000017E-7     -3.7602270888249365E-12
9.254646947934023E-8      0                        3.0717160527768616E-7    -1.6315205151183839E-12
1.4626061947033615E-7     0                        3.3710157053704483E-7    -1.70482128673853E-12
1.9997476946133207E-7     0                        3.6703153579640355E-7    -1.768030945996451E-12
2.53688919452328E-7       0                        3.9696150105576226E-7    -1.8211494928921467E-12
1.313787889676845E-7      0                        2.844132452960136E-7     -1.3643434651534353E-12
1.8509293895868045E-7     0                        3.1434321055537234E-7    -1.4233524292841853E-12
2.388070889496764E-7      0                        3.44273175814731E-7      -1.472270281052711E-12
1.7021110845602878E-7     0                        2.616548853143411E-7     -1.0845179876486352E-12
2.2392525844702473E-7     0                        2.915848505736998E-7     -1.1292351442899902E-12
2.090434279443731E-7      0                        2.388965253326686E-7     -7.920440826039841E-13
2.598786324960454E-7      0                        2.450425686257146E-7     -6.815313672984752E-13
3.107138370477177E-7      0                        2.5118861191876055E-7    -5.812620763518663E-13
3.6154904159939E-7        0                        2.573346552118065E-7     -4.912362097641576E-13
4.123842461510624E-7      0                        2.634806985048525E-7     -4.114537675353487E-13
2.747604629986971E-7      0                        2.977308938667458E-7     -1.0229466546742782E-12
3.2559566755036935E-7     0                        3.0387693715979176E-7    -9.26901589417466E-13
3.764308721020417E-7      0                        3.100229804528377E-7     -8.410999485195537E-13
2.896422935013487E-7      0                        3.50419219107777E-7      -1.3702060171267958E-12
3.4047749805302105E-7     0                        3.5656526240082297E-7    -1.27838517755978E-12
3.045241240040004E-7      0                        4.0310754434880827E-7    -1.7233094546560277E-12
4.130537313008866E-7      3.0E-8                   2.1875778412255083E-7    -1.627607870730833E-13
3.8118551336593985E-7     3.0E-8                   1.739649935508618E-7     8.37100164348218E-14
4.2747287173978993E-7     3.0000000000000004E-8    1.7917116228675603E-7    1.5479965725281398E-13
3.493172954309932E-7      3.0000000000000004E-8    1.2917220297917282E-7    3.308851539831003E-13
3.956046538048432E-7      3.0000000000000004E-8    1.34378371715067E-7      4.0860268833685387E-13
3.1744907749604654E-7     3.0000000000000004E-8    8.437941240748381E-8     5.787646255717523E-13
3.637364358698965E-7      3.0000000000000004E-8    8.958558114337802E-8     6.631100534612671E-13
3.3186821793494984E-7     3.0000000000000004E-8    4.479279057168901E-8     9.183217526260542E-13
3.667663729270365E-7      3.0E-8                   2.135516153866566E-7     -2.356094962746904E-13
3.3489815499208987E-7     3.0000000000000004E-8    1.6875882481496762E-7    4.23341369745331E-15
3.0302993705714314E-7     3.0000000000000004E-8    1.239660342432786E-7     2.447806577099705E-13
3.2047901455318646E-7     3.0E-8                   2.0834544665076242E-7    -3.168451673956737E-13
2.886107966182398E-7      3.0000000000000004E-8    1.6355265607907342E-7    -8.363015095929133E-14
2.7419165617933643E-7     3.0E-8                   2.0313927791486822E-7    -4.0646780043603336E-13
4.5934108967473656E-7     3.0E-8                   2.23963952858445E-7      -9.829903979085248E-14
4.5560465380484337E-7     3.0000000000000004E-8    1.34378371715067E-7      5.684098766243896E-13
4.8747287173979E-7        3.0E-8                   1.7917116228675603E-7    3.1578758761780153E-13
4.837364358698969E-7      3.0000000000000004E-8    8.958558114337802E-8     9.867708754034112E-13
5.156046538048435E-7      3.0E-8                   1.34378371715067E-7      7.346249944339016E-13
5.118682179349503E-7      3.0000000000000004E-8    4.479279057168901E-8     1.409882653589879E-12
5.43736435869897E-7       3.0E-8                   8.958558114337802E-8     1.1582131806574477E-12
5.718682179349505E-7      3.0E-8                   4.479279057168901E-8     1.5865521462884404E-12
4.237364358698967E-7      3.0000000000000004E-8    8.958558114337802E-8     8.217364996713512E-13
4.518682179349502E-7      3.0000000000000004E-8    4.479279057168901E-8     1.2396210904132947E-12
3.9186821793495E-7        3.0000000000000004E-8    4.479279057168901E-8     1.075767456758686E-12
2.1995472285966997E-7     3.0E-8                   4.940885300406618E-7     -2.6942584940258336E-12
1.6496604214475247E-7     3.0E-8                   4.605663975304966E-7     -2.6117983307426752E-12
2.1995472285966997E-7     3.0E-8                   4.3408853004066156E-7    -2.287577609098107E-12
1.0997736142983499E-7     3.0E-8                   4.2704426502033144E-7    -2.5205558634631254E-12
1.6496604214475247E-7     3.0E-8                   4.0056639753049636E-7    -2.190000443705569E-12
5.4988680714917494E-8     3.0E-8                   3.9352213251016625E-7    -2.4205310921871864E-12
1.0997736142983499E-7     3.0E-8                   3.670442650203312E-7     -2.0836409743166413E-12
5.4988680714917494E-8     3.0E-8                   3.3352213251016603E-7    -1.9684992009313233E-12
1.6496604214475247E-7     3.0E-8                   5.205663975304969E-7     -3.04143894974884E-12